LAMMPS

4 atoms
4 bonds
4 angles
    0 dihedrals
    0 impropers

    1 atom types
    1 bond types
    1 angle types
    0 dihedral types
    0 improper types

0.0000 36.1033 xlo xhi
0.0000 36.1033 ylo yhi
0.0000 36.1033 zlo zhi

Atoms

1 1 1 128.369 -22.407 44.769
2 1 1 128.136 -21.668 44.275
3 1 1 128.095 -20.684 44.133
4 1 1 128.344 -19.851 43.701

Bonds

1 1 1 2
2 1 2 3
3 1 3 4
4 1 4 1

Angles

1 1 1 2 3
2 1 2 3 4
3 1 3 4 1
4 1 4 1 2
